# LAMMPS DATA FILE FOR ARGON (ATOMIC STYLE)

864 atoms
0    bonds
0    angles

1 atom types
0 bond types
0 angle types

0.0 34.7786 xlo xhi
0.0 34.7786 ylo yhi
0.0 34.7786 zlo zhi

Atoms

1 1 0 0 0 
2 1 1.70998 1.70998 0 
3 1 1.70998 0 1.70998 
4 1 0 1.70998 1.70998 
5 1 3.41995 0 0 
6 1 5.12993 1.70998 0 
7 1 5.12993 0 1.70998 
8 1 3.41995 1.70998 1.70998 
9 1 6.8399 0 0 
10 1 8.54988 1.70998 0 
11 1 8.54988 0 1.70998 
12 1 6.8399 1.70998 1.70998 
13 1 10.2599 0 0 
14 1 11.9698 1.70998 0 
15 1 11.9698 0 1.70998 
16 1 10.2599 1.70998 1.70998 
17 1 13.6798 0 0 
18 1 15.3898 1.70998 0 
19 1 15.3898 0 1.70998 
20 1 13.6798 1.70998 1.70998 
21 1 17.0998 0 0 
22 1 18.8097 1.70998 0 
23 1 18.8097 0 1.70998 
24 1 17.0998 1.70998 1.70998 
25 1 20.5197 0 0 
26 1 22.2297 1.70998 0 
27 1 22.2297 0 1.70998 
28 1 20.5197 1.70998 1.70998 
29 1 23.9397 0 0 
30 1 25.6496 1.70998 0 
31 1 25.6496 0 1.70998 
32 1 23.9397 1.70998 1.70998 
33 1 27.3596 0 0 
34 1 29.0696 1.70998 0 
35 1 29.0696 0 1.70998 
36 1 27.3596 1.70998 1.70998 
37 1 30.7796 0 0 
38 1 32.4895 1.70998 0 
39 1 32.4895 0 1.70998 
40 1 30.7796 1.70998 1.70998 
41 1 0 3.41995 0 
42 1 1.70998 5.12993 0 
43 1 1.70998 3.41995 1.70998 
44 1 0 5.12993 1.70998 
45 1 3.41995 3.41995 0 
46 1 5.12993 5.12993 0 
47 1 5.12993 3.41995 1.70998 
48 1 3.41995 5.12993 1.70998 
49 1 6.8399 3.41995 0 
50 1 8.54988 5.12993 0 
51 1 8.54988 3.41995 1.70998 
52 1 6.8399 5.12993 1.70998 
53 1 10.2599 3.41995 0 
54 1 11.9698 5.12993 0 
55 1 11.9698 3.41995 1.70998 
56 1 10.2599 5.12993 1.70998 
57 1 13.6798 3.41995 0 
58 1 15.3898 5.12993 0 
59 1 15.3898 3.41995 1.70998 
60 1 13.6798 5.12993 1.70998 
61 1 17.0998 3.41995 0 
62 1 18.8097 5.12993 0 
63 1 18.8097 3.41995 1.70998 
64 1 17.0998 5.12993 1.70998 
65 1 20.5197 3.41995 0 
66 1 22.2297 5.12993 0 
67 1 22.2297 3.41995 1.70998 
68 1 20.5197 5.12993 1.70998 
69 1 23.9397 3.41995 0 
70 1 25.6496 5.12993 0 
71 1 25.6496 3.41995 1.70998 
72 1 23.9397 5.12993 1.70998 
73 1 27.3596 3.41995 0 
74 1 29.0696 5.12993 0 
75 1 29.0696 3.41995 1.70998 
76 1 27.3596 5.12993 1.70998 
77 1 30.7796 3.41995 0 
78 1 32.4895 5.12993 0 
79 1 32.4895 3.41995 1.70998 
80 1 30.7796 5.12993 1.70998 
81 1 0 6.8399 0 
82 1 1.70998 8.54988 0 
83 1 1.70998 6.8399 1.70998 
84 1 0 8.54988 1.70998 
85 1 3.41995 6.8399 0 
86 1 5.12993 8.54988 0 
87 1 5.12993 6.8399 1.70998 
88 1 3.41995 8.54988 1.70998 
89 1 6.8399 6.8399 0 
90 1 8.54988 8.54988 0 
91 1 8.54988 6.8399 1.70998 
92 1 6.8399 8.54988 1.70998 
93 1 10.2599 6.8399 0 
94 1 11.9698 8.54988 0 
95 1 11.9698 6.8399 1.70998 
96 1 10.2599 8.54988 1.70998 
97 1 13.6798 6.8399 0 
98 1 15.3898 8.54988 0 
99 1 15.3898 6.8399 1.70998 
100 1 13.6798 8.54988 1.70998 
101 1 17.0998 6.8399 0 
102 1 18.8097 8.54988 0 
103 1 18.8097 6.8399 1.70998 
104 1 17.0998 8.54988 1.70998 
105 1 20.5197 6.8399 0 
106 1 22.2297 8.54988 0 
107 1 22.2297 6.8399 1.70998 
108 1 20.5197 8.54988 1.70998 
109 1 23.9397 6.8399 0 
110 1 25.6496 8.54988 0 
111 1 25.6496 6.8399 1.70998 
112 1 23.9397 8.54988 1.70998 
113 1 27.3596 6.8399 0 
114 1 29.0696 8.54988 0 
115 1 29.0696 6.8399 1.70998 
116 1 27.3596 8.54988 1.70998 
117 1 30.7796 6.8399 0 
118 1 32.4895 8.54988 0 
119 1 32.4895 6.8399 1.70998 
120 1 30.7796 8.54988 1.70998 
121 1 0 10.2599 0 
122 1 1.70998 11.9698 0 
123 1 1.70998 10.2599 1.70998 
124 1 0 11.9698 1.70998 
125 1 3.41995 10.2599 0 
126 1 5.12993 11.9698 0 
127 1 5.12993 10.2599 1.70998 
128 1 3.41995 11.9698 1.70998 
129 1 6.8399 10.2599 0 
130 1 8.54988 11.9698 0 
131 1 8.54988 10.2599 1.70998 
132 1 6.8399 11.9698 1.70998 
133 1 10.2599 10.2599 0 
134 1 11.9698 11.9698 0 
135 1 11.9698 10.2599 1.70998 
136 1 10.2599 11.9698 1.70998 
137 1 13.6798 10.2599 0 
138 1 15.3898 11.9698 0 
139 1 15.3898 10.2599 1.70998 
140 1 13.6798 11.9698 1.70998 
141 1 17.0998 10.2599 0 
142 1 18.8097 11.9698 0 
143 1 18.8097 10.2599 1.70998 
144 1 17.0998 11.9698 1.70998 
145 1 20.5197 10.2599 0 
146 1 22.2297 11.9698 0 
147 1 22.2297 10.2599 1.70998 
148 1 20.5197 11.9698 1.70998 
149 1 23.9397 10.2599 0 
150 1 25.6496 11.9698 0 
151 1 25.6496 10.2599 1.70998 
152 1 23.9397 11.9698 1.70998 
153 1 27.3596 10.2599 0 
154 1 29.0696 11.9698 0 
155 1 29.0696 10.2599 1.70998 
156 1 27.3596 11.9698 1.70998 
157 1 30.7796 10.2599 0 
158 1 32.4895 11.9698 0 
159 1 32.4895 10.2599 1.70998 
160 1 30.7796 11.9698 1.70998 
161 1 0 13.6798 0 
162 1 1.70998 15.3898 0 
163 1 1.70998 13.6798 1.70998 
164 1 0 15.3898 1.70998 
165 1 3.41995 13.6798 0 
166 1 5.12993 15.3898 0 
167 1 5.12993 13.6798 1.70998 
168 1 3.41995 15.3898 1.70998 
169 1 6.8399 13.6798 0 
170 1 8.54988 15.3898 0 
171 1 8.54988 13.6798 1.70998 
172 1 6.8399 15.3898 1.70998 
173 1 10.2599 13.6798 0 
174 1 11.9698 15.3898 0 
175 1 11.9698 13.6798 1.70998 
176 1 10.2599 15.3898 1.70998 
177 1 13.6798 13.6798 0 
178 1 15.3898 15.3898 0 
179 1 15.3898 13.6798 1.70998 
180 1 13.6798 15.3898 1.70998 
181 1 17.0998 13.6798 0 
182 1 18.8097 15.3898 0 
183 1 18.8097 13.6798 1.70998 
184 1 17.0998 15.3898 1.70998 
185 1 20.5197 13.6798 0 
186 1 22.2297 15.3898 0 
187 1 22.2297 13.6798 1.70998 
188 1 20.5197 15.3898 1.70998 
189 1 23.9397 13.6798 0 
190 1 25.6496 15.3898 0 
191 1 25.6496 13.6798 1.70998 
192 1 23.9397 15.3898 1.70998 
193 1 27.3596 13.6798 0 
194 1 29.0696 15.3898 0 
195 1 29.0696 13.6798 1.70998 
196 1 27.3596 15.3898 1.70998 
197 1 30.7796 13.6798 0 
198 1 32.4895 15.3898 0 
199 1 32.4895 13.6798 1.70998 
200 1 30.7796 15.3898 1.70998 
201 1 0 17.0998 0 
202 1 1.70998 18.8097 0 
203 1 1.70998 17.0998 1.70998 
204 1 0 18.8097 1.70998 
205 1 3.41995 17.0998 0 
206 1 5.12993 18.8097 0 
207 1 5.12993 17.0998 1.70998 
208 1 3.41995 18.8097 1.70998 
209 1 6.8399 17.0998 0 
210 1 8.54988 18.8097 0 
211 1 8.54988 17.0998 1.70998 
212 1 6.8399 18.8097 1.70998 
213 1 10.2599 17.0998 0 
214 1 11.9698 18.8097 0 
215 1 11.9698 17.0998 1.70998 
216 1 10.2599 18.8097 1.70998 
217 1 13.6798 17.0998 0 
218 1 15.3898 18.8097 0 
219 1 15.3898 17.0998 1.70998 
220 1 13.6798 18.8097 1.70998 
221 1 17.0998 17.0998 0 
222 1 18.8097 18.8097 0 
223 1 18.8097 17.0998 1.70998 
224 1 17.0998 18.8097 1.70998 
225 1 20.5197 17.0998 0 
226 1 22.2297 18.8097 0 
227 1 22.2297 17.0998 1.70998 
228 1 20.5197 18.8097 1.70998 
229 1 23.9397 17.0998 0 
230 1 25.6496 18.8097 0 
231 1 25.6496 17.0998 1.70998 
232 1 23.9397 18.8097 1.70998 
233 1 27.3596 17.0998 0 
234 1 29.0696 18.8097 0 
235 1 29.0696 17.0998 1.70998 
236 1 27.3596 18.8097 1.70998 
237 1 30.7796 17.0998 0 
238 1 32.4895 18.8097 0 
239 1 32.4895 17.0998 1.70998 
240 1 30.7796 18.8097 1.70998 
241 1 0 20.5197 0 
242 1 1.70998 22.2297 0 
243 1 1.70998 20.5197 1.70998 
244 1 0 22.2297 1.70998 
245 1 3.41995 20.5197 0 
246 1 5.12993 22.2297 0 
247 1 5.12993 20.5197 1.70998 
248 1 3.41995 22.2297 1.70998 
249 1 6.8399 20.5197 0 
250 1 8.54988 22.2297 0 
251 1 8.54988 20.5197 1.70998 
252 1 6.8399 22.2297 1.70998 
253 1 10.2599 20.5197 0 
254 1 11.9698 22.2297 0 
255 1 11.9698 20.5197 1.70998 
256 1 10.2599 22.2297 1.70998 
257 1 13.6798 20.5197 0 
258 1 15.3898 22.2297 0 
259 1 15.3898 20.5197 1.70998 
260 1 13.6798 22.2297 1.70998 
261 1 17.0998 20.5197 0 
262 1 18.8097 22.2297 0 
263 1 18.8097 20.5197 1.70998 
264 1 17.0998 22.2297 1.70998 
265 1 20.5197 20.5197 0 
266 1 22.2297 22.2297 0 
267 1 22.2297 20.5197 1.70998 
268 1 20.5197 22.2297 1.70998 
269 1 23.9397 20.5197 0 
270 1 25.6496 22.2297 0 
271 1 25.6496 20.5197 1.70998 
272 1 23.9397 22.2297 1.70998 
273 1 27.3596 20.5197 0 
274 1 29.0696 22.2297 0 
275 1 29.0696 20.5197 1.70998 
276 1 27.3596 22.2297 1.70998 
277 1 30.7796 20.5197 0 
278 1 32.4895 22.2297 0 
279 1 32.4895 20.5197 1.70998 
280 1 30.7796 22.2297 1.70998 
281 1 0 23.9397 0 
282 1 1.70998 25.6496 0 
283 1 1.70998 23.9397 1.70998 
284 1 0 25.6496 1.70998 
285 1 3.41995 23.9397 0 
286 1 5.12993 25.6496 0 
287 1 5.12993 23.9397 1.70998 
288 1 3.41995 25.6496 1.70998 
289 1 6.8399 23.9397 0 
290 1 8.54988 25.6496 0 
291 1 8.54988 23.9397 1.70998 
292 1 6.8399 25.6496 1.70998 
293 1 10.2599 23.9397 0 
294 1 11.9698 25.6496 0 
295 1 11.9698 23.9397 1.70998 
296 1 10.2599 25.6496 1.70998 
297 1 13.6798 23.9397 0 
298 1 15.3898 25.6496 0 
299 1 15.3898 23.9397 1.70998 
300 1 13.6798 25.6496 1.70998 
301 1 17.0998 23.9397 0 
302 1 18.8097 25.6496 0 
303 1 18.8097 23.9397 1.70998 
304 1 17.0998 25.6496 1.70998 
305 1 20.5197 23.9397 0 
306 1 22.2297 25.6496 0 
307 1 22.2297 23.9397 1.70998 
308 1 20.5197 25.6496 1.70998 
309 1 23.9397 23.9397 0 
310 1 25.6496 25.6496 0 
311 1 25.6496 23.9397 1.70998 
312 1 23.9397 25.6496 1.70998 
313 1 27.3596 23.9397 0 
314 1 29.0696 25.6496 0 
315 1 29.0696 23.9397 1.70998 
316 1 27.3596 25.6496 1.70998 
317 1 30.7796 23.9397 0 
318 1 32.4895 25.6496 0 
319 1 32.4895 23.9397 1.70998 
320 1 30.7796 25.6496 1.70998 
321 1 0 27.3596 0 
322 1 1.70998 29.0696 0 
323 1 1.70998 27.3596 1.70998 
324 1 0 29.0696 1.70998 
325 1 3.41995 27.3596 0 
326 1 5.12993 29.0696 0 
327 1 5.12993 27.3596 1.70998 
328 1 3.41995 29.0696 1.70998 
329 1 6.8399 27.3596 0 
330 1 8.54988 29.0696 0 
331 1 8.54988 27.3596 1.70998 
332 1 6.8399 29.0696 1.70998 
333 1 10.2599 27.3596 0 
334 1 11.9698 29.0696 0 
335 1 11.9698 27.3596 1.70998 
336 1 10.2599 29.0696 1.70998 
337 1 13.6798 27.3596 0 
338 1 15.3898 29.0696 0 
339 1 15.3898 27.3596 1.70998 
340 1 13.6798 29.0696 1.70998 
341 1 17.0998 27.3596 0 
342 1 18.8097 29.0696 0 
343 1 18.8097 27.3596 1.70998 
344 1 17.0998 29.0696 1.70998 
345 1 20.5197 27.3596 0 
346 1 22.2297 29.0696 0 
347 1 22.2297 27.3596 1.70998 
348 1 20.5197 29.0696 1.70998 
349 1 23.9397 27.3596 0 
350 1 25.6496 29.0696 0 
351 1 25.6496 27.3596 1.70998 
352 1 23.9397 29.0696 1.70998 
353 1 27.3596 27.3596 0 
354 1 29.0696 29.0696 0 
355 1 29.0696 27.3596 1.70998 
356 1 27.3596 29.0696 1.70998 
357 1 30.7796 27.3596 0 
358 1 32.4895 29.0696 0 
359 1 32.4895 27.3596 1.70998 
360 1 30.7796 29.0696 1.70998 
361 1 0 30.7796 0 
362 1 1.70998 32.4895 0 
363 1 1.70998 30.7796 1.70998 
364 1 0 32.4895 1.70998 
365 1 3.41995 30.7796 0 
366 1 5.12993 32.4895 0 
367 1 5.12993 30.7796 1.70998 
368 1 3.41995 32.4895 1.70998 
369 1 6.8399 30.7796 0 
370 1 8.54988 32.4895 0 
371 1 8.54988 30.7796 1.70998 
372 1 6.8399 32.4895 1.70998 
373 1 10.2599 30.7796 0 
374 1 11.9698 32.4895 0 
375 1 11.9698 30.7796 1.70998 
376 1 10.2599 32.4895 1.70998 
377 1 13.6798 30.7796 0 
378 1 15.3898 32.4895 0 
379 1 15.3898 30.7796 1.70998 
380 1 13.6798 32.4895 1.70998 
381 1 17.0998 30.7796 0 
382 1 18.8097 32.4895 0 
383 1 18.8097 30.7796 1.70998 
384 1 17.0998 32.4895 1.70998 
385 1 20.5197 30.7796 0 
386 1 22.2297 32.4895 0 
387 1 22.2297 30.7796 1.70998 
388 1 20.5197 32.4895 1.70998 
389 1 23.9397 30.7796 0 
390 1 25.6496 32.4895 0 
391 1 25.6496 30.7796 1.70998 
392 1 23.9397 32.4895 1.70998 
393 1 27.3596 30.7796 0 
394 1 29.0696 32.4895 0 
395 1 29.0696 30.7796 1.70998 
396 1 27.3596 32.4895 1.70998 
397 1 30.7796 30.7796 0 
398 1 32.4895 32.4895 0 
399 1 32.4895 30.7796 1.70998 
400 1 30.7796 32.4895 1.70998 
401 1 0 0 3.41995 
402 1 1.70998 1.70998 3.41995 
403 1 1.70998 0 5.12993 
404 1 0 1.70998 5.12993 
405 1 3.41995 0 3.41995 
406 1 5.12993 1.70998 3.41995 
407 1 5.12993 0 5.12993 
408 1 3.41995 1.70998 5.12993 
409 1 6.8399 0 3.41995 
410 1 8.54988 1.70998 3.41995 
411 1 8.54988 0 5.12993 
412 1 6.8399 1.70998 5.12993 
413 1 10.2599 0 3.41995 
414 1 11.9698 1.70998 3.41995 
415 1 11.9698 0 5.12993 
416 1 10.2599 1.70998 5.12993 
417 1 13.6798 0 3.41995 
418 1 15.3898 1.70998 3.41995 
419 1 15.3898 0 5.12993 
420 1 13.6798 1.70998 5.12993 
421 1 17.0998 0 3.41995 
422 1 18.8097 1.70998 3.41995 
423 1 18.8097 0 5.12993 
424 1 17.0998 1.70998 5.12993 
425 1 20.5197 0 3.41995 
426 1 22.2297 1.70998 3.41995 
427 1 22.2297 0 5.12993 
428 1 20.5197 1.70998 5.12993 
429 1 23.9397 0 3.41995 
430 1 25.6496 1.70998 3.41995 
431 1 25.6496 0 5.12993 
432 1 23.9397 1.70998 5.12993 
433 1 27.3596 0 3.41995 
434 1 29.0696 1.70998 3.41995 
435 1 29.0696 0 5.12993 
436 1 27.3596 1.70998 5.12993 
437 1 30.7796 0 3.41995 
438 1 32.4895 1.70998 3.41995 
439 1 32.4895 0 5.12993 
440 1 30.7796 1.70998 5.12993 
441 1 0 3.41995 3.41995 
442 1 1.70998 5.12993 3.41995 
443 1 1.70998 3.41995 5.12993 
444 1 0 5.12993 5.12993 
445 1 3.41995 3.41995 3.41995 
446 1 5.12993 5.12993 3.41995 
447 1 5.12993 3.41995 5.12993 
448 1 3.41995 5.12993 5.12993 
449 1 6.8399 3.41995 3.41995 
450 1 8.54988 5.12993 3.41995 
451 1 8.54988 3.41995 5.12993 
452 1 6.8399 5.12993 5.12993 
453 1 10.2599 3.41995 3.41995 
454 1 11.9698 5.12993 3.41995 
455 1 11.9698 3.41995 5.12993 
456 1 10.2599 5.12993 5.12993 
457 1 13.6798 3.41995 3.41995 
458 1 15.3898 5.12993 3.41995 
459 1 15.3898 3.41995 5.12993 
460 1 13.6798 5.12993 5.12993 
461 1 17.0998 3.41995 3.41995 
462 1 18.8097 5.12993 3.41995 
463 1 18.8097 3.41995 5.12993 
464 1 17.0998 5.12993 5.12993 
465 1 20.5197 3.41995 3.41995 
466 1 22.2297 5.12993 3.41995 
467 1 22.2297 3.41995 5.12993 
468 1 20.5197 5.12993 5.12993 
469 1 23.9397 3.41995 3.41995 
470 1 25.6496 5.12993 3.41995 
471 1 25.6496 3.41995 5.12993 
472 1 23.9397 5.12993 5.12993 
473 1 27.3596 3.41995 3.41995 
474 1 29.0696 5.12993 3.41995 
475 1 29.0696 3.41995 5.12993 
476 1 27.3596 5.12993 5.12993 
477 1 30.7796 3.41995 3.41995 
478 1 32.4895 5.12993 3.41995 
479 1 32.4895 3.41995 5.12993 
480 1 30.7796 5.12993 5.12993 
481 1 0 6.8399 3.41995 
482 1 1.70998 8.54988 3.41995 
483 1 1.70998 6.8399 5.12993 
484 1 0 8.54988 5.12993 
485 1 3.41995 6.8399 3.41995 
486 1 5.12993 8.54988 3.41995 
487 1 5.12993 6.8399 5.12993 
488 1 3.41995 8.54988 5.12993 
489 1 6.8399 6.8399 3.41995 
490 1 8.54988 8.54988 3.41995 
491 1 8.54988 6.8399 5.12993 
492 1 6.8399 8.54988 5.12993 
493 1 10.2599 6.8399 3.41995 
494 1 11.9698 8.54988 3.41995 
495 1 11.9698 6.8399 5.12993 
496 1 10.2599 8.54988 5.12993 
497 1 13.6798 6.8399 3.41995 
498 1 15.3898 8.54988 3.41995 
499 1 15.3898 6.8399 5.12993 
500 1 13.6798 8.54988 5.12993 
501 1 17.0998 6.8399 3.41995 
502 1 18.8097 8.54988 3.41995 
503 1 18.8097 6.8399 5.12993 
504 1 17.0998 8.54988 5.12993 
505 1 20.5197 6.8399 3.41995 
506 1 22.2297 8.54988 3.41995 
507 1 22.2297 6.8399 5.12993 
508 1 20.5197 8.54988 5.12993 
509 1 23.9397 6.8399 3.41995 
510 1 25.6496 8.54988 3.41995 
511 1 25.6496 6.8399 5.12993 
512 1 23.9397 8.54988 5.12993 
513 1 27.3596 6.8399 3.41995 
514 1 29.0696 8.54988 3.41995 
515 1 29.0696 6.8399 5.12993 
516 1 27.3596 8.54988 5.12993 
517 1 30.7796 6.8399 3.41995 
518 1 32.4895 8.54988 3.41995 
519 1 32.4895 6.8399 5.12993 
520 1 30.7796 8.54988 5.12993 
521 1 0 10.2599 3.41995 
522 1 1.70998 11.9698 3.41995 
523 1 1.70998 10.2599 5.12993 
524 1 0 11.9698 5.12993 
525 1 3.41995 10.2599 3.41995 
526 1 5.12993 11.9698 3.41995 
527 1 5.12993 10.2599 5.12993 
528 1 3.41995 11.9698 5.12993 
529 1 6.8399 10.2599 3.41995 
530 1 8.54988 11.9698 3.41995 
531 1 8.54988 10.2599 5.12993 
532 1 6.8399 11.9698 5.12993 
533 1 10.2599 10.2599 3.41995 
534 1 11.9698 11.9698 3.41995 
535 1 11.9698 10.2599 5.12993 
536 1 10.2599 11.9698 5.12993 
537 1 13.6798 10.2599 3.41995 
538 1 15.3898 11.9698 3.41995 
539 1 15.3898 10.2599 5.12993 
540 1 13.6798 11.9698 5.12993 
541 1 17.0998 10.2599 3.41995 
542 1 18.8097 11.9698 3.41995 
543 1 18.8097 10.2599 5.12993 
544 1 17.0998 11.9698 5.12993 
545 1 20.5197 10.2599 3.41995 
546 1 22.2297 11.9698 3.41995 
547 1 22.2297 10.2599 5.12993 
548 1 20.5197 11.9698 5.12993 
549 1 23.9397 10.2599 3.41995 
550 1 25.6496 11.9698 3.41995 
551 1 25.6496 10.2599 5.12993 
552 1 23.9397 11.9698 5.12993 
553 1 27.3596 10.2599 3.41995 
554 1 29.0696 11.9698 3.41995 
555 1 29.0696 10.2599 5.12993 
556 1 27.3596 11.9698 5.12993 
557 1 30.7796 10.2599 3.41995 
558 1 32.4895 11.9698 3.41995 
559 1 32.4895 10.2599 5.12993 
560 1 30.7796 11.9698 5.12993 
561 1 0 13.6798 3.41995 
562 1 1.70998 15.3898 3.41995 
563 1 1.70998 13.6798 5.12993 
564 1 0 15.3898 5.12993 
565 1 3.41995 13.6798 3.41995 
566 1 5.12993 15.3898 3.41995 
567 1 5.12993 13.6798 5.12993 
568 1 3.41995 15.3898 5.12993 
569 1 6.8399 13.6798 3.41995 
570 1 8.54988 15.3898 3.41995 
571 1 8.54988 13.6798 5.12993 
572 1 6.8399 15.3898 5.12993 
573 1 10.2599 13.6798 3.41995 
574 1 11.9698 15.3898 3.41995 
575 1 11.9698 13.6798 5.12993 
576 1 10.2599 15.3898 5.12993 
577 1 13.6798 13.6798 3.41995 
578 1 15.3898 15.3898 3.41995 
579 1 15.3898 13.6798 5.12993 
580 1 13.6798 15.3898 5.12993 
581 1 17.0998 13.6798 3.41995 
582 1 18.8097 15.3898 3.41995 
583 1 18.8097 13.6798 5.12993 
584 1 17.0998 15.3898 5.12993 
585 1 20.5197 13.6798 3.41995 
586 1 22.2297 15.3898 3.41995 
587 1 22.2297 13.6798 5.12993 
588 1 20.5197 15.3898 5.12993 
589 1 23.9397 13.6798 3.41995 
590 1 25.6496 15.3898 3.41995 
591 1 25.6496 13.6798 5.12993 
592 1 23.9397 15.3898 5.12993 
593 1 27.3596 13.6798 3.41995 
594 1 29.0696 15.3898 3.41995 
595 1 29.0696 13.6798 5.12993 
596 1 27.3596 15.3898 5.12993 
597 1 30.7796 13.6798 3.41995 
598 1 32.4895 15.3898 3.41995 
599 1 32.4895 13.6798 5.12993 
600 1 30.7796 15.3898 5.12993 
601 1 0 17.0998 3.41995 
602 1 1.70998 18.8097 3.41995 
603 1 1.70998 17.0998 5.12993 
604 1 0 18.8097 5.12993 
605 1 3.41995 17.0998 3.41995 
606 1 5.12993 18.8097 3.41995 
607 1 5.12993 17.0998 5.12993 
608 1 3.41995 18.8097 5.12993 
609 1 6.8399 17.0998 3.41995 
610 1 8.54988 18.8097 3.41995 
611 1 8.54988 17.0998 5.12993 
612 1 6.8399 18.8097 5.12993 
613 1 10.2599 17.0998 3.41995 
614 1 11.9698 18.8097 3.41995 
615 1 11.9698 17.0998 5.12993 
616 1 10.2599 18.8097 5.12993 
617 1 13.6798 17.0998 3.41995 
618 1 15.3898 18.8097 3.41995 
619 1 15.3898 17.0998 5.12993 
620 1 13.6798 18.8097 5.12993 
621 1 17.0998 17.0998 3.41995 
622 1 18.8097 18.8097 3.41995 
623 1 18.8097 17.0998 5.12993 
624 1 17.0998 18.8097 5.12993 
625 1 20.5197 17.0998 3.41995 
626 1 22.2297 18.8097 3.41995 
627 1 22.2297 17.0998 5.12993 
628 1 20.5197 18.8097 5.12993 
629 1 23.9397 17.0998 3.41995 
630 1 25.6496 18.8097 3.41995 
631 1 25.6496 17.0998 5.12993 
632 1 23.9397 18.8097 5.12993 
633 1 27.3596 17.0998 3.41995 
634 1 29.0696 18.8097 3.41995 
635 1 29.0696 17.0998 5.12993 
636 1 27.3596 18.8097 5.12993 
637 1 30.7796 17.0998 3.41995 
638 1 32.4895 18.8097 3.41995 
639 1 32.4895 17.0998 5.12993 
640 1 30.7796 18.8097 5.12993 
641 1 0 20.5197 3.41995 
642 1 1.70998 22.2297 3.41995 
643 1 1.70998 20.5197 5.12993 
644 1 0 22.2297 5.12993 
645 1 3.41995 20.5197 3.41995 
646 1 5.12993 22.2297 3.41995 
647 1 5.12993 20.5197 5.12993 
648 1 3.41995 22.2297 5.12993 
649 1 6.8399 20.5197 3.41995 
650 1 8.54988 22.2297 3.41995 
651 1 8.54988 20.5197 5.12993 
652 1 6.8399 22.2297 5.12993 
653 1 10.2599 20.5197 3.41995 
654 1 11.9698 22.2297 3.41995 
655 1 11.9698 20.5197 5.12993 
656 1 10.2599 22.2297 5.12993 
657 1 13.6798 20.5197 3.41995 
658 1 15.3898 22.2297 3.41995 
659 1 15.3898 20.5197 5.12993 
660 1 13.6798 22.2297 5.12993 
661 1 17.0998 20.5197 3.41995 
662 1 18.8097 22.2297 3.41995 
663 1 18.8097 20.5197 5.12993 
664 1 17.0998 22.2297 5.12993 
665 1 20.5197 20.5197 3.41995 
666 1 22.2297 22.2297 3.41995 
667 1 22.2297 20.5197 5.12993 
668 1 20.5197 22.2297 5.12993 
669 1 23.9397 20.5197 3.41995 
670 1 25.6496 22.2297 3.41995 
671 1 25.6496 20.5197 5.12993 
672 1 23.9397 22.2297 5.12993 
673 1 27.3596 20.5197 3.41995 
674 1 29.0696 22.2297 3.41995 
675 1 29.0696 20.5197 5.12993 
676 1 27.3596 22.2297 5.12993 
677 1 30.7796 20.5197 3.41995 
678 1 32.4895 22.2297 3.41995 
679 1 32.4895 20.5197 5.12993 
680 1 30.7796 22.2297 5.12993 
681 1 0 23.9397 3.41995 
682 1 1.70998 25.6496 3.41995 
683 1 1.70998 23.9397 5.12993 
684 1 0 25.6496 5.12993 
685 1 3.41995 23.9397 3.41995 
686 1 5.12993 25.6496 3.41995 
687 1 5.12993 23.9397 5.12993 
688 1 3.41995 25.6496 5.12993 
689 1 6.8399 23.9397 3.41995 
690 1 8.54988 25.6496 3.41995 
691 1 8.54988 23.9397 5.12993 
692 1 6.8399 25.6496 5.12993 
693 1 10.2599 23.9397 3.41995 
694 1 11.9698 25.6496 3.41995 
695 1 11.9698 23.9397 5.12993 
696 1 10.2599 25.6496 5.12993 
697 1 13.6798 23.9397 3.41995 
698 1 15.3898 25.6496 3.41995 
699 1 15.3898 23.9397 5.12993 
700 1 13.6798 25.6496 5.12993 
701 1 17.0998 23.9397 3.41995 
702 1 18.8097 25.6496 3.41995 
703 1 18.8097 23.9397 5.12993 
704 1 17.0998 25.6496 5.12993 
705 1 20.5197 23.9397 3.41995 
706 1 22.2297 25.6496 3.41995 
707 1 22.2297 23.9397 5.12993 
708 1 20.5197 25.6496 5.12993 
709 1 23.9397 23.9397 3.41995 
710 1 25.6496 25.6496 3.41995 
711 1 25.6496 23.9397 5.12993 
712 1 23.9397 25.6496 5.12993 
713 1 27.3596 23.9397 3.41995 
714 1 29.0696 25.6496 3.41995 
715 1 29.0696 23.9397 5.12993 
716 1 27.3596 25.6496 5.12993 
717 1 30.7796 23.9397 3.41995 
718 1 32.4895 25.6496 3.41995 
719 1 32.4895 23.9397 5.12993 
720 1 30.7796 25.6496 5.12993 
721 1 0 27.3596 3.41995 
722 1 1.70998 29.0696 3.41995 
723 1 1.70998 27.3596 5.12993 
724 1 0 29.0696 5.12993 
725 1 3.41995 27.3596 3.41995 
726 1 5.12993 29.0696 3.41995 
727 1 5.12993 27.3596 5.12993 
728 1 3.41995 29.0696 5.12993 
729 1 6.8399 27.3596 3.41995 
730 1 8.54988 29.0696 3.41995 
731 1 8.54988 27.3596 5.12993 
732 1 6.8399 29.0696 5.12993 
733 1 10.2599 27.3596 3.41995 
734 1 11.9698 29.0696 3.41995 
735 1 11.9698 27.3596 5.12993 
736 1 10.2599 29.0696 5.12993 
737 1 13.6798 27.3596 3.41995 
738 1 15.3898 29.0696 3.41995 
739 1 15.3898 27.3596 5.12993 
740 1 13.6798 29.0696 5.12993 
741 1 17.0998 27.3596 3.41995 
742 1 18.8097 29.0696 3.41995 
743 1 18.8097 27.3596 5.12993 
744 1 17.0998 29.0696 5.12993 
745 1 20.5197 27.3596 3.41995 
746 1 22.2297 29.0696 3.41995 
747 1 22.2297 27.3596 5.12993 
748 1 20.5197 29.0696 5.12993 
749 1 23.9397 27.3596 3.41995 
750 1 25.6496 29.0696 3.41995 
751 1 25.6496 27.3596 5.12993 
752 1 23.9397 29.0696 5.12993 
753 1 27.3596 27.3596 3.41995 
754 1 29.0696 29.0696 3.41995 
755 1 29.0696 27.3596 5.12993 
756 1 27.3596 29.0696 5.12993 
757 1 30.7796 27.3596 3.41995 
758 1 32.4895 29.0696 3.41995 
759 1 32.4895 27.3596 5.12993 
760 1 30.7796 29.0696 5.12993 
761 1 0 30.7796 3.41995 
762 1 1.70998 32.4895 3.41995 
763 1 1.70998 30.7796 5.12993 
764 1 0 32.4895 5.12993 
765 1 3.41995 30.7796 3.41995 
766 1 5.12993 32.4895 3.41995 
767 1 5.12993 30.7796 5.12993 
768 1 3.41995 32.4895 5.12993 
769 1 6.8399 30.7796 3.41995 
770 1 8.54988 32.4895 3.41995 
771 1 8.54988 30.7796 5.12993 
772 1 6.8399 32.4895 5.12993 
773 1 10.2599 30.7796 3.41995 
774 1 11.9698 32.4895 3.41995 
775 1 11.9698 30.7796 5.12993 
776 1 10.2599 32.4895 5.12993 
777 1 13.6798 30.7796 3.41995 
778 1 15.3898 32.4895 3.41995 
779 1 15.3898 30.7796 5.12993 
780 1 13.6798 32.4895 5.12993 
781 1 17.0998 30.7796 3.41995 
782 1 18.8097 32.4895 3.41995 
783 1 18.8097 30.7796 5.12993 
784 1 17.0998 32.4895 5.12993 
785 1 20.5197 30.7796 3.41995 
786 1 22.2297 32.4895 3.41995 
787 1 22.2297 30.7796 5.12993 
788 1 20.5197 32.4895 5.12993 
789 1 23.9397 30.7796 3.41995 
790 1 25.6496 32.4895 3.41995 
791 1 25.6496 30.7796 5.12993 
792 1 23.9397 32.4895 5.12993 
793 1 27.3596 30.7796 3.41995 
794 1 29.0696 32.4895 3.41995 
795 1 29.0696 30.7796 5.12993 
796 1 27.3596 32.4895 5.12993 
797 1 30.7796 30.7796 3.41995 
798 1 32.4895 32.4895 3.41995 
799 1 32.4895 30.7796 5.12993 
800 1 30.7796 32.4895 5.12993 
801 1 0 0 6.8399 
802 1 1.70998 1.70998 6.8399 
803 1 1.70998 0 8.54988 
804 1 0 1.70998 8.54988 
805 1 3.41995 0 6.8399 
806 1 5.12993 1.70998 6.8399 
807 1 5.12993 0 8.54988 
808 1 3.41995 1.70998 8.54988 
809 1 6.8399 0 6.8399 
810 1 8.54988 1.70998 6.8399 
811 1 8.54988 0 8.54988 
812 1 6.8399 1.70998 8.54988 
813 1 10.2599 0 6.8399 
814 1 11.9698 1.70998 6.8399 
815 1 11.9698 0 8.54988 
816 1 10.2599 1.70998 8.54988 
817 1 13.6798 0 6.8399 
818 1 15.3898 1.70998 6.8399 
819 1 15.3898 0 8.54988 
820 1 13.6798 1.70998 8.54988 
821 1 17.0998 0 6.8399 
822 1 18.8097 1.70998 6.8399 
823 1 18.8097 0 8.54988 
824 1 17.0998 1.70998 8.54988 
825 1 20.5197 0 6.8399 
826 1 22.2297 1.70998 6.8399 
827 1 22.2297 0 8.54988 
828 1 20.5197 1.70998 8.54988 
829 1 23.9397 0 6.8399 
830 1 25.6496 1.70998 6.8399 
831 1 25.6496 0 8.54988 
832 1 23.9397 1.70998 8.54988 
833 1 27.3596 0 6.8399 
834 1 29.0696 1.70998 6.8399 
835 1 29.0696 0 8.54988 
836 1 27.3596 1.70998 8.54988 
837 1 30.7796 0 6.8399 
838 1 32.4895 1.70998 6.8399 
839 1 32.4895 0 8.54988 
840 1 30.7796 1.70998 8.54988 
841 1 0 3.41995 6.8399 
842 1 1.70998 5.12993 6.8399 
843 1 1.70998 3.41995 8.54988 
844 1 0 5.12993 8.54988 
845 1 3.41995 3.41995 6.8399 
846 1 5.12993 5.12993 6.8399 
847 1 5.12993 3.41995 8.54988 
848 1 3.41995 5.12993 8.54988 
849 1 6.8399 3.41995 6.8399 
850 1 8.54988 5.12993 6.8399 
851 1 8.54988 3.41995 8.54988 
852 1 6.8399 5.12993 8.54988 
853 1 10.2599 3.41995 6.8399 
854 1 11.9698 5.12993 6.8399 
855 1 11.9698 3.41995 8.54988 
856 1 10.2599 5.12993 8.54988 
857 1 13.6798 3.41995 6.8399 
858 1 15.3898 5.12993 6.8399 
859 1 15.3898 3.41995 8.54988 
860 1 13.6798 5.12993 8.54988 
861 1 17.0998 3.41995 6.8399 
862 1 18.8097 5.12993 6.8399 
863 1 18.8097 3.41995 8.54988 
864 1 17.0998 5.12993 8.54988 
