LAMMPS (7 Feb 2024 - Update 1)
OMP_NUM_THREADS environment is not set. Defaulting to 1 thread. (src/comm.cpp:98)
  using 1 OpenMP thread(s) per MPI task
# -------------------------------
# LJ fluid - NPT simulation
# -------------------------------

units lj
atom_style atomic
boundary p p p

lattice fcc 0.8
Lattice spacing in x,y,z = 1.7099759 1.7099759 1.7099759
region box block 0 5 0 5 0 5
create_box 1 box
Created orthogonal box = (0 0 0) to (8.5498797 8.5498797 8.5498797)
  1 by 1 by 1 MPI processor grid
create_atoms 1 box
Created 500 atoms
  using lattice units in orthogonal box = (0 0 0) to (8.5498797 8.5498797 8.5498797)
  create_atoms CPU = 0.000 seconds

mass 1 1.0

pair_style lj/cut 2.5
pair_coeff 1 1 1.0 1.0 2.5

neighbor 0.3 bin
neigh_modify delay 0 every 1 check yes

# Initial velocities
velocity all create 1.12 12345

# Thermo output
thermo_style custom step temp press density pe ke etotal
thermo 100

timestep 0.005

# -------------------------------
# EQUILIBRATION (NPT)
# -------------------------------
fix npt1 all npt temp 1.12 1.12 1.0 iso ${P} ${P} 5.0
fix npt1 all npt temp 1.12 1.12 1.0 iso 0.05 ${P} 5.0
fix npt1 all npt temp 1.12 1.12 1.0 iso 0.05 0.05 5.0
run 5000
Generated 0 of 0 mixed pair_coeff terms from geometric mixing rule
Neighbor list info ...
  update: every = 1 steps, delay = 0 steps, check = yes
  max neighbors/atom: 2000, page size: 100000
  master list distance cutoff = 2.8
  ghost atom cutoff = 2.8
  binsize = 1.4, bins = 7 7 7
  1 neighbor lists, perpetual/occasional/extra = 1 0 0
  (1) pair lj/cut, perpetual
      attributes: half, newton on
      pair build: half/bin/atomonly/newton
      stencil: half/bin/3d
      bin: standard
Per MPI rank memory allocation (min/avg/max) = 3.145 | 3.145 | 3.145 Mbytes
   Step          Temp          Press         Density         PotEng         KinEng         TotEng    
         0   1.12          -5.3147586      0.8           -6.3647465      1.67664       -4.6881065    
       100   0.69427197    -0.36071315     0.82365651    -5.6837953      1.0393251     -4.6444702    
       200   0.84167493     0.46399443     0.85303315    -5.8015027      1.2599874     -4.5415154    
       300   0.89638531     1.2473689      0.86095428    -5.7372506      1.3418888     -4.3953618    
       400   0.8524404      1.1100436      0.83755964    -5.5511908      1.2761033     -4.2750875    
       500   0.77650111     0.72096284     0.80229959    -5.299592       1.1624222     -4.1371699    
       600   0.81551916    -0.012890309    0.77253144    -5.1969329      1.2208322     -3.9761008    
       700   0.80206366     0.13699778     0.7523975     -5.0033989      1.2006893     -3.8027096    
       800   0.83468932     0.19976001     0.73679341    -4.8727998      1.2495299     -3.6232699    
       900   0.898901       0.11793918     0.72289136    -4.7875698      1.3456548     -3.441915     
      1000   0.90425077     0.42107762     0.71010785    -4.6097749      1.3536634     -3.2561115    
      1100   0.97947525     0.19538306     0.69514841    -4.5408692      1.4662744     -3.0745947    
      1200   0.94999442     0.47478824     0.67902744    -4.3228516      1.4221416     -2.90071      
      1300   1.0197557      0.31498491     0.66131757    -4.2588412      1.5265743     -2.7322669    
      1400   1.0499261      0.37023806     0.64430147    -4.1417652      1.5717393     -2.5700259    
      1500   1.0873338      0.17605655     0.62802686    -4.0446851      1.6277387     -2.4169464    
      1600   1.1109026      0.18926035     0.61396038    -3.9400448      1.6630211     -2.2770237    
      1700   1.1081508      0.37101707     0.60063335    -3.8173468      1.6589018     -2.1584451    
      1800   1.1380176      0.11192774     0.58643328    -3.7587643      1.7036124     -2.0551519    
      1900   1.1439277      0.2178505      0.57319226    -3.6723114      1.7124597     -1.9598516    
      2000   1.1378713      0.13584561     0.56106976    -3.5846931      1.7033933     -1.8812998    
      2100   1.1094369      0.32042986     0.5501719     -3.4811891      1.6608271     -1.8203621    
      2200   1.1241634      0.2960357      0.53907858    -3.4526222      1.6828726     -1.7697496    
      2300   1.0950894      0.28318531     0.52792033    -3.359588       1.6393488     -1.7202392    
      2400   1.0793187      0.1477112      0.51808912    -3.2888269      1.6157402     -1.6730868    
      2500   1.1374572      0.15273571     0.51021295    -3.3193458      1.7027734     -1.6165724    
      2600   1.1507343      0.023990869    0.50223446    -3.293922       1.7226493     -1.5712727    
      2700   1.1517747      0.09103475     0.49448868    -3.262366       1.7242067     -1.5381592    
      2800   1.1007995      0.020174342    0.48598889    -3.1557215      1.6478968     -1.5078247    
      2900   1.1435845      0.054163794    0.4791625     -3.1726774      1.7119459     -1.4607315    
      3000   1.1029768      0.076880121    0.47243947    -3.0656381      1.6511563     -1.4144818    
      3100   1.1082689      0.12246484     0.46652868    -3.0178105      1.6590786     -1.3587319    
      3200   1.1579195      0.12503852     0.46154788    -3.0450214      1.7334055     -1.3116158    
      3300   1.1868766      0.020229902    0.45413341    -3.0621502      1.7767542     -1.2853959    
      3400   1.1321322      0.13745419     0.44553686    -2.9685852      1.6948019     -1.2737832    
      3500   1.0688528      0.16571271     0.43718669    -2.8615499      1.6000726     -1.2614773    
      3600   1.081188       0.13595376     0.43110027    -2.8514581      1.6185384     -1.2329197    
      3700   1.1162234      0.077686844    0.425902      -2.8585046      1.6709865     -1.1875182    
      3800   1.1256152      0.031267603    0.42079057    -2.8184391      1.685046      -1.1333931    
      3900   1.14725        0.059724287    0.41619871    -2.7974825      1.7174333     -1.0800492    
      4000   1.1241275      0.31186849     0.41063744    -2.7339771      1.6828188     -1.0511583    
      4100   1.1428287      0.090073453    0.40327206    -2.7499714      1.7108146     -1.0391568    
      4200   1.1075289      0.20159813     0.39604293    -2.6943205      1.6579708     -1.0363497    
      4300   1.1332101      0.12653156     0.38869723    -2.7271097      1.6964155     -1.0306942    
      4400   1.1050897      0.14132614     0.38161073    -2.6813083      1.6543193     -1.026989     
      4500   1.0754397      0.018467482    0.3754126     -2.6102112      1.6099332     -1.0002781    
      4600   1.0824497      0.058971712    0.37091186    -2.5614684      1.6204272     -0.94104118   
      4700   1.1128198      0.18384693     0.36710827    -2.5351977      1.6658912     -0.86930655   
      4800   1.1288816      0.12263608     0.36280829    -2.5031368      1.6899358     -0.81320106   
      4900   1.1482246      0.10759209     0.3582756     -2.4903273      1.7188923     -0.77143501   
      5000   1.0920485      0.20684443     0.35260007    -2.3760497      1.6347966     -0.74125313   
Loop time of 0.830733 on 1 procs for 5000 steps with 500 atoms

Performance: 2600113.701 tau/day, 6018.782 timesteps/s, 3.009 Matom-step/s
99.7% CPU use with 1 MPI tasks x 1 OpenMP threads

MPI task timing breakdown:
Section |  min time  |  avg time  |  max time  |%varavg| %total
---------------------------------------------------------------
Pair    | 0.4949     | 0.4949     | 0.4949     |   0.0 | 59.57
Neigh   | 0.2481     | 0.2481     | 0.2481     |   0.0 | 29.87
Comm    | 0.027825   | 0.027825   | 0.027825   |   0.0 |  3.35
Output  | 0.00046087 | 0.00046087 | 0.00046087 |   0.0 |  0.06
Modify  | 0.052267   | 0.052267   | 0.052267   |   0.0 |  6.29
Other   |            | 0.007172   |            |       |  0.86

Nlocal:            500 ave         500 max         500 min
Histogram: 1 0 0 0 0 0 0 0 0 0
Nghost:           1231 ave        1231 max        1231 min
Histogram: 1 0 0 0 0 0 0 0 0 0
Neighs:           8499 ave        8499 max        8499 min
Histogram: 1 0 0 0 0 0 0 0 0 0

Total # of neighbors = 8499
Ave neighs/atom = 16.998
Neighbor list builds = 646
Dangerous builds = 0
unfix npt1

# -------------------------------
# PRODUCTION (NPT)
# -------------------------------
fix npt2 all npt temp 1.12 1.12 1.0 iso ${P} ${P} 5.0
fix npt2 all npt temp 1.12 1.12 1.0 iso 0.05 ${P} 5.0
fix npt2 all npt temp 1.12 1.12 1.0 iso 0.05 0.05 5.0
run 20000
Generated 0 of 0 mixed pair_coeff terms from geometric mixing rule
Per MPI rank memory allocation (min/avg/max) = 3.149 | 3.149 | 3.149 Mbytes
   Step          Temp          Press         Density         PotEng         KinEng         TotEng    
      5000   1.0920485      0.20684443     0.35260007    -2.3760497      1.6347966     -0.74125313   
      5100   1.097387       0.15486375     0.35143413    -2.381605       1.6427883     -0.73881675   
      5200   1.0938058      0.17581604     0.34850095    -2.3567687      1.6374273     -0.71934142   
      5300   1.1464426      0.073617524    0.34402299    -2.3957285      1.7162245     -0.67950396   
      5400   1.1020646      0.15058449     0.33780107    -2.2600154      1.6497908     -0.61022465   
      5500   1.161755       0.088957847    0.33053427    -2.2706014      1.7391473     -0.53145411   
      5600   1.1508951      0.16359798     0.32226345    -2.2264705      1.72289       -0.5035806    
      5700   1.1055133      0.22154074     0.31355379    -2.1648595      1.6549533     -0.50990619   
      5800   1.0892606      0.12905299     0.30556749    -2.152949       1.6306232     -0.52232582   
      5900   1.0822876      0.16976938     0.29893541    -2.1302797      1.6201846     -0.51009518   
      6000   1.1331649      0.17643694     0.29298607    -2.1802171      1.6963478     -0.48386924   
      6100   1.1001602      0.19832411     0.28596005    -2.091682       1.6469399     -0.44474213   
      6200   1.1590615      0.15860415     0.27893816    -2.0991441      1.735115      -0.3640291    
      6300   1.1730245      0.12910266     0.27195421    -2.0139872      1.7560177     -0.25796953   
      6400   1.1321066      0.093110413    0.26528172    -1.9175348      1.6947636     -0.2227712    
      6500   1.1173371      0.13586294     0.25917709    -1.8945738      1.6726537     -0.22192011   
      6600   1.1152905      0.22087353     0.25344802    -1.9010787      1.6695899     -0.23148886   
      6700   1.0646888      0.13639233     0.24758249    -1.8442558      1.5938392     -0.25041663   
      6800   1.0914851      0.070737169    0.24239684    -1.8718292      1.6339532     -0.23787609   
      6900   1.0844985      0.080645369    0.2378908     -1.8111266      1.6234943     -0.18763231   
      7000   1.1243695      0.14143781     0.23373347    -1.7894032      1.6831811     -0.10622208   
      7100   1.0963332      0.14617125     0.22943761    -1.7130319      1.6412108     -0.071821106  
      7200   1.085975       0.073790105    0.22538348    -1.6825252      1.6257046     -0.056820573  
      7300   1.1042521      0.095286795    0.2218067     -1.6846309      1.6530654     -0.031565544  
      7400   1.1148882      0.16278546     0.21802081    -1.6766759      1.6689877     -0.0076882369 
      7500   1.1384384      0.098665405    0.21363497    -1.6902959      1.7042423      0.01394647   
      7600   1.1500549      0.083796693    0.2093809     -1.6979273      1.7216322      0.023704944  
      7700   1.1283682      0.10151677     0.20534375    -1.6730702      1.6891672      0.016097063  
      7800   1.0993934      0.070376454    0.20134841    -1.6451107      1.6457919      0.0006811982 
      7900   1.0617105      0.091937719    0.19759718    -1.5826311      1.5893806      0.0067494563 
      8000   1.111375       0.083322181    0.19439053    -1.5907263      1.6637284      0.073002125  
      8100   1.1683491      0.11820555     0.19130122    -1.6052028      1.7490186      0.14381576   
      8200   1.1531563      0.095681621    0.18769139    -1.5601468      1.7262749      0.16612811   
      8300   1.1082673      0.064476421    0.18394522    -1.481707       1.6590761      0.17736914   
      8400   1.138735       0.093245639    0.18050666    -1.5092929      1.7046863      0.19539338   
      8500   1.1799317      0.059928466    0.17703015    -1.5522121      1.7663577      0.21414555   
      8600   1.1293119      0.1375514      0.17330813    -1.4671138      1.6905799      0.22346608   
      8700   1.0867059      0.082829077    0.1692787     -1.3866972      1.6267988      0.24010155   
      8800   1.1002804      0.090376914    0.16561018    -1.3460519      1.6471198      0.30106784   
      8900   1.1413402      0.099920715    0.16206864    -1.3267941      1.7085863      0.38179214   
      9000   1.1399249      0.098216014    0.15856654    -1.2928954      1.7064675      0.41357211   
      9100   1.1240474      0.13811894     0.1551478     -1.2679688      1.682699       0.41473021   
      9200   1.0662623      0.082822753    0.15154459    -1.1865663      1.5961946      0.4096283    
      9300   1.0853711      0.068464242    0.14851824    -1.1869964      1.6248006      0.43780424   
      9400   1.1508229      0.11989743     0.14590058    -1.2281982      1.7227818      0.49458367   
      9500   1.1233196      0.087785968    0.1429125     -1.1557849      1.6816094      0.52582449   
      9600   1.1253872      0.080159761    0.13998682    -1.1492952      1.6847046      0.53540941   
      9700   1.114161       0.092016513    0.13704494    -1.1299566      1.6678991      0.53794248   
      9800   1.1184492      0.089313275    0.1342001     -1.1432247      1.6743185      0.53109376   
      9900   1.0700662      0.073516717    0.13150192    -1.0691563      1.6018891      0.53273287   
     10000   1.0736452      0.08506915     0.12905842    -1.0509849      1.6072469      0.55626201   
     10100   1.0897461      0.1067057      0.12673145    -1.0419076      1.6313499      0.58944232   
     10200   1.0804868      0.071210054    0.12444475    -1.0002468      1.6174888      0.61724202   
     10300   1.1142512      0.076733254    0.12233388    -1.0181201      1.6680341      0.64991404   
     10400   1.1566287      0.081779274    0.12019579    -1.0633704      1.7314731      0.66810268   
     10500   1.1257859      0.081206064    0.11788292    -1.0232951      1.6853016      0.66200646   
     10600   1.1068212      0.092264318    0.11554162    -1.0073459      1.6569114      0.6495655    
     10700   1.0848739      0.076611314    0.11324639    -0.98422067     1.6240563      0.63983559   
     10800   1.1264746      0.075380914    0.11113742    -1.0203838      1.6863325      0.6659487    
     10900   1.115091       0.071815757    0.10899411    -0.91834102     1.6692912      0.75095014   
     11000   1.175842       0.082759022    0.10696234    -0.93706338     1.7602355      0.82317211   
     11100   1.1419672      0.07743353     0.10479703    -0.8850632      1.7095249      0.8244617    
     11200   1.0996875      0.076050748    0.10269586    -0.83770217     1.6462322      0.80852998   
     11300   1.0729187      0.072473445    0.10077535    -0.80219415     1.6061593      0.80396515   
     11400   1.097584       0.068511796    0.099010791   -0.81251429     1.6430832      0.83056889   
     11500   1.1153973      0.08753876     0.097300587   -0.78520938     1.6697498      0.88454044   
     11600   1.1709137      0.064038768    0.09553268    -0.82577636     1.7528579      0.92708151   
     11700   1.1387774      0.065797609    0.09373357    -0.77448335     1.7047498      0.93026648   
     11800   1.1376663      0.075023087    0.091985129   -0.78760781     1.7030865      0.91547869   
     11900   1.1242532      0.062699379    0.090277498   -0.78974561     1.683007       0.89326139   
     12000   1.1138566      0.071076958    0.088697901   -0.78829617     1.6674433      0.87914716   
     12100   1.0895116      0.06395448     0.087170255   -0.7555429      1.6309989      0.87545595   
     12200   1.0713235      0.051703056    0.085754184   -0.71468851     1.6037713      0.88908282   
     12300   1.0940425      0.049147015    0.084493376   -0.71620653     1.6377816      0.92157509   
     12400   1.1068437      0.056753064    0.083289355   -0.70278677     1.6569451      0.9541583    
     12500   1.1074748      0.05480428     0.082097143   -0.68004647     1.6578898      0.97784334   
     12600   1.1129387      0.052465786    0.080953862   -0.66570115     1.6660692      1.0003681    
     12700   1.1231924      0.070159336    0.079871033   -0.66223644     1.681419       1.0191826    
     12800   1.127841       0.056480306    0.078695755   -0.65626077     1.688378       1.0321173    
     12900   1.1248037      0.055704277    0.077511781   -0.63996211     1.6838311      1.043869     
     13000   1.1289846      0.069569162    0.076369621   -0.62704698     1.6900899      1.0630429    
     13100   1.129293       0.064627081    0.07519795    -0.59848399     1.6905517      1.0920677    
     13200   1.1845658      0.055335419    0.073992557   -0.6165416      1.773295       1.1567534    
     13300   1.2159148      0.068163194    0.07273977    -0.59582241     1.8202245      1.2244021    
     13400   1.2020721      0.067655458    0.071405903   -0.58510827     1.7995019      1.2143937    
     13500   1.1529694      0.059904026    0.07003238    -0.58547947     1.7259951      1.1405156    
     13600   1.0750619      0.060926981    0.068808975   -0.5479151      1.6093676      1.0614525    
     13700   1.0391496      0.056751414    0.06776496    -0.51727623     1.5556069      1.0383307    
     13800   1.0566714      0.061443746    0.066931461   -0.52558096     1.5818371      1.0562562    
     13900   1.0864731      0.058478027    0.066241371   -0.53432324     1.6264502      1.092127     
     14000   1.1207104      0.053146976    0.065595776   -0.54755008     1.6777034      1.1301534    
     14100   1.1179859      0.062560294    0.064950161   -0.51245796     1.6736249      1.1611669    
     14200   1.1515063      0.049580418    0.064278028   -0.5395006      1.7238049      1.1843043    
     14300   1.1536013      0.056380838    0.063585997   -0.53302726     1.7269412      1.193914     
     14400   1.1294827      0.053254405    0.062895273   -0.50794998     1.6908356      1.1828856    
     14500   1.1168168      0.052864496    0.062273899   -0.50991898     1.6718748      1.1619558    
     14600   1.0898461      0.048690441    0.061678495   -0.50658681     1.6314997      1.1249128    
     14700   1.0525879      0.046933033    0.061154385   -0.48634072     1.5757241      1.0893834    
     14800   1.0805581      0.058904139    0.060743824   -0.5259506      1.6175954      1.0916448    
     14900   1.0944712      0.048697239    0.06029769    -0.50468218     1.6384233      1.1337412    
     15000   1.1283012      0.052705338    0.059901996   -0.48623716     1.6890669      1.2028297    
     15100   1.1546133      0.054483215    0.059478353   -0.47675123     1.7284561      1.2517049    
     15200   1.184068       0.048263345    0.058982649   -0.51736224     1.7725497      1.2551875    
     15300   1.1558485      0.04611709     0.05841139    -0.51309797     1.7303052      1.2172072    
     15400   1.1069067      0.049303574    0.057846953   -0.49909193     1.6570393      1.1579473    
     15500   1.0748468      0.050416237    0.057357305   -0.49666841     1.6090457      1.1123773    
     15600   1.0691559      0.042149294    0.056939879   -0.49567925     1.6005265      1.1048472    
     15700   1.0935093      0.048462131    0.056682677   -0.49611766     1.6369835      1.1408658    
     15800   1.1321841      0.052082889    0.056507814   -0.48213016     1.6948796      1.2127494    
     15900   1.1759584      0.051477488    0.056336998   -0.47864431     1.7604097      1.2817654    
     16000   1.1765904      0.052032799    0.056129469   -0.47051896     1.7613558      1.2908368    
     16100   1.1673278      0.051499251    0.055885758   -0.48176716     1.7474897      1.2657226    
     16200   1.1438528      0.059563069    0.055573808   -0.48746183     1.7123477      1.2248859    
     16300   1.1155214      0.04264881     0.055197927   -0.49524181     1.6699355      1.1746937    
     16400   1.0993703      0.043647466    0.054888735   -0.51100288     1.6457573      1.1347544    
     16500   1.0468306      0.043256036    0.05462147    -0.44952757     1.5671054      1.1175779    
     16600   1.0765362      0.054564729    0.054465433   -0.45886905     1.6115747      1.1527056    
     16700   1.1238961      0.05120813     0.054366495   -0.46287879     1.6824724      1.2195936    
     16800   1.160883       0.054809713    0.054303093   -0.46730473     1.7378419      1.2705372    
     16900   1.1620275      0.047640494    0.054185291   -0.46199661     1.7395551      1.2775585    
     17000   1.1168978      0.055889965    0.054042627   -0.41645645     1.6719961      1.2555396    
     17100   1.1233434      0.051645727    0.053877892   -0.45314766     1.681645       1.2284974    
     17200   1.1113642      0.047421071    0.053719659   -0.45963606     1.6637122      1.2040761    
     17300   1.0899127      0.057417629    0.053601361   -0.44208034     1.6315993      1.1895189    
     17400   1.0968335      0.043128045    0.053516403   -0.45295855     1.6419597      1.1890011    
     17500   1.1260568      0.04798236     0.053566928   -0.45981518     1.6857071      1.2258919    
     17600   1.1875967      0.06206792     0.053639703   -0.45379469     1.7778322      1.3240375    
     17700   1.2250221      0.052879279    0.05362602    -0.46205992     1.8338581      1.3717982    
     17800   1.182381       0.052051342    0.053513415   -0.43051658     1.7700243      1.3395077    
     17900   1.1482044      0.047271679    0.053328927   -0.46021313     1.7188619      1.2586488    
     18000   1.0922213      0.047672107    0.053118083   -0.44499767     1.6350553      1.1900576    
     18100   1.0848523      0.043912258    0.052976164   -0.46250543     1.6240239      1.1615184    
     18200   1.0796379      0.05251874     0.0529096     -0.44917271     1.616218       1.1670453    
     18300   1.113082       0.045988869    0.052911096   -0.46833168     1.6662838      1.1979521    
     18400   1.1455385      0.045315469    0.05295117    -0.47117282     1.7148712      1.2436983    
     18500   1.180205       0.046983753    0.05300437    -0.47715457     1.7667669      1.2896123    
     18600   1.1641346      0.047939146    0.053046605   -0.437245       1.7427095      1.3054645    
     18700   1.1275354      0.048632498    0.053053615   -0.40430212     1.6879205      1.2836184    
     18800   1.0803319      0.048182932    0.053103957   -0.41067637     1.6172568      1.2065804    
     18900   1.0451276      0.049526389    0.053226908   -0.43019198     1.564556       1.134364     
     19000   1.0511411      0.043834872    0.053430882   -0.45048358     1.5735582      1.1230746    
     19100   1.076109       0.045485402    0.053748682   -0.44628568     1.6109352      1.1646495    
     19200   1.1082538      0.055967665    0.054185692   -0.42389177     1.6590559      1.2351641    
     19300   1.1682771      0.051161831    0.054644838   -0.45942389     1.7489108      1.2894869    
     19400   1.1482666      0.051046473    0.055067602   -0.41273125     1.7189552      1.3062239    
     19500   1.154768       0.058876088    0.055477145   -0.43433472     1.7286877      1.2943529    
     19600   1.1256367      0.049352566    0.055811117   -0.41863339     1.6850782      1.2664448    
     19700   1.1072831      0.048694734    0.056136929   -0.40711938     1.6576028      1.2504834    
     19800   1.1097585      0.050994861    0.056489656   -0.40835625     1.6613085      1.2529523    
     19900   1.1360787      0.056615119    0.056896322   -0.44195702     1.7007099      1.2587529    
     20000   1.1247043      0.05299954     0.05728947    -0.43111811     1.6836823      1.2525642    
     20100   1.108982       0.053071723    0.057688106   -0.41396651     1.660146       1.2461795    
     20200   1.1258369      0.066802717    0.05808653    -0.44046566     1.6853779      1.2449122    
     20300   1.1287465      0.051157189    0.058374906   -0.45119101     1.6897335      1.2385425    
     20400   1.1296581      0.063496999    0.058590209   -0.45803101     1.6910981      1.2330671    
     20500   1.1060273      0.054436145    0.058653736   -0.43351591     1.6557228      1.2222069    
     20600   1.0992001      0.053837183    0.058641154   -0.42524497     1.6455025      1.2202576    
     20700   1.122648       0.056099064    0.058516798   -0.45186135     1.680604       1.2287427    
     20800   1.1250951      0.048558467    0.058161987   -0.44253622     1.6842673      1.2417311    
     20900   1.1333862      0.061845705    0.05766327    -0.43265296     1.6966791      1.2640262    
     21000   1.2015686      0.052983023    0.056960285   -0.49941827     1.7987483      1.29933      
     21100   1.2056621      0.056825072    0.055990376   -0.49750647     1.8048761      1.3073696    
     21200   1.1428318      0.047424251    0.054785642   -0.4560248      1.7108192      1.2547944    
     21300   1.0831946      0.041890318    0.053633428   -0.45196066     1.6215422      1.1695816    
     21400   1.0519708      0.045865829    0.052687477   -0.46135302     1.5748002      1.1134472    
     21500   1.0496335      0.046856528    0.051945662   -0.46223657     1.5713014      1.1090648    
     21600   1.0766443      0.047198538    0.051394712   -0.45283285     1.6117366      1.1589037    
     21700   1.1063415      0.049903169    0.05103501    -0.42776099     1.6561933      1.2284323    
     21800   1.1331729      0.042582943    0.05078698    -0.43637333     1.6963599      1.2599865    
     21900   1.1443863      0.044951865    0.050640028   -0.44692321     1.7131462      1.266223     
     22000   1.137003       0.049691423    0.050594783   -0.44414388     1.7020935      1.2579496    
     22100   1.1289751      0.04522838     0.050613337   -0.44672973     1.6900757      1.2433459    
     22200   1.1061814      0.049354365    0.050694415   -0.43201745     1.6559535      1.2239361    
     22300   1.0833837      0.051492355    0.050834908   -0.41922355     1.6218254      1.2026018    
     22400   1.0783699      0.046965536    0.051079087   -0.41876244     1.6143197      1.1955573    
     22500   1.1057881      0.045786224    0.051426259   -0.43680769     1.6553647      1.218557     
     22600   1.1384872      0.049373453    0.051853782   -0.42580308     1.7043153      1.2785122    
     22700   1.1873929      0.054693184    0.052296861   -0.43832524     1.7775272      1.339202     
     22800   1.1964184      0.049892284    0.052648631   -0.43769937     1.7910384      1.353339     
     22900   1.1310331      0.054717191    0.052921694   -0.38601706     1.6931566      1.3071395    
     23000   1.1034526      0.048066122    0.053189929   -0.40978936     1.6518685      1.2420791    
     23100   1.0987304      0.048344613    0.053524199   -0.44196809     1.6447994      1.2028313    
     23200   1.0697264      0.053112303    0.053923155   -0.40873379     1.6013804      1.1926466    
     23300   1.1094225      0.04754358     0.054378586   -0.45265435     1.6608055      1.2081511    
     23400   1.1296363      0.047716799    0.054846069   -0.45856935     1.6910655      1.2324962    
     23500   1.1449892      0.048987179    0.055316544   -0.46386218     1.7140488      1.2501866    
     23600   1.1481316      0.052098781    0.055720906   -0.4695673      1.718753       1.2491858    
     23700   1.1282166      0.055734534    0.056013833   -0.45688677     1.6889402      1.2320535    
     23800   1.1282828      0.051970338    0.056236279   -0.47515258     1.6890394      1.2138868    
     23900   1.1282072      0.06166404     0.056415947   -0.48893584     1.6889261      1.1999903    
     24000   1.1266687      0.057417532    0.056524409   -0.49612182     1.6866231      1.1905013    
     24100   1.1082888      0.040003823    0.056554201   -0.48067384     1.6591084      1.1784345    
     24200   1.1140534      0.056492916    0.056618683   -0.4908715      1.6677379      1.1768664    
     24300   1.1162144      0.048727935    0.05659922    -0.4906934      1.670973       1.1802796    
     24400   1.1250092      0.045311005    0.056566345   -0.49447879     1.6841388      1.18966      
     24500   1.1285568      0.049657905    0.056516565   -0.48259845     1.6894496      1.2068511    
     24600   1.1308617      0.050411172    0.056453541   -0.46350818     1.6929         1.2293918    
     24700   1.1553501      0.059526536    0.056395194   -0.47196805     1.7295591      1.2575911    
     24800   1.1712159      0.056177721    0.056208393   -0.48424267     1.7533102      1.2690676    
     24900   1.1540284      0.062496272    0.055833329   -0.48857329     1.7275804      1.2390072    
     25000   1.086531       0.0499615      0.055300975   -0.45829549     1.6265368      1.1682414    
Loop time of 1.10535 on 1 procs for 20000 steps with 500 atoms

Performance: 7816542.010 tau/day, 18093.847 timesteps/s, 9.047 Matom-step/s
99.3% CPU use with 1 MPI tasks x 1 OpenMP threads

MPI task timing breakdown:
Section |  min time  |  avg time  |  max time  |%varavg| %total
---------------------------------------------------------------
Pair    | 0.40507    | 0.40507    | 0.40507    |   0.0 | 36.65
Neigh   | 0.40294    | 0.40294    | 0.40294    |   0.0 | 36.45
Comm    | 0.06115    | 0.06115    | 0.06115    |   0.0 |  5.53
Output  | 0.0015263  | 0.0015263  | 0.0015263  |   0.0 |  0.14
Modify  | 0.2094     | 0.2094     | 0.2094     |   0.0 | 18.94
Other   |            | 0.02527    |            |       |  2.29

Nlocal:            500 ave         500 max         500 min
Histogram: 1 0 0 0 0 0 0 0 0 0
Nghost:            498 ave         498 max         498 min
Histogram: 1 0 0 0 0 0 0 0 0 0
Neighs:           1413 ave        1413 max        1413 min
Histogram: 1 0 0 0 0 0 0 0 0 0

Total # of neighbors = 1413
Ave neighs/atom = 2.826
Neighbor list builds = 2706
Dangerous builds = 0
unfix npt2
Total wall time: 0:00:01
